{"hands_on_practices": [{"introduction": "Understanding the size of atoms and ions is fundamental to predicting how they will pack into a crystal lattice, a key consideration in materials design. This practice explores the concept of an isoelectronic series, where different species share the same number of electrons. By comparing the radii of a cation, an anion, and a neutral atom with an identical electron configuration, you will strengthen your understanding of how the effective nuclear charge ($Z_{\\text{eff}}$), the net positive charge experienced by an electron, governs ionic and atomic size [@problem_id:1321084].", "problem": "In the development of novel solid-state electrolytes for next-generation batteries, understanding ion transport through a crystal lattice is critical. The mobility of an ion is heavily influenced by its size. A materials chemist is investigating a theoretical electrolyte structure where ions and atoms must fit into specific sites within a host material. The species under consideration are the chloride ion ($\\text{Cl}^{-}$), the neutral argon atom ($\\text{Ar}$), and the potassium ion ($\\text{K}^{+}$). These three species form an isoelectronic series, meaning they all have the same number of electrons.\n\nBased on the fundamental principles of atomic structure and effective nuclear charge, which of the following options correctly arranges these three species in order of increasing radius (from smallest to largest)?\n\nA. $K^{+} < Ar < Cl^{-}$\n\nB. $Cl^{-} < Ar < K^{+}$\n\nC. $Ar < Cl^{-} < K^{+}$\n\nD. $K^{+} < Cl^{-} < Ar$\n\nE. All three have the same radius because they are isoelectronic.", "solution": "All three species are isoelectronic with the same electron count, so their sizes are governed primarily by the effective nuclear charge acting on an essentially identical electron distribution. Let the number of electrons be $N_{e}$ and the nuclear charge be $Z$. For the series $\\text{Cl}^{-}$, $\\text{Ar}$, $\\text{K}^{+}$, each has $N_{e}=18$.\n\nThe effective nuclear charge on the valence electrons can be written as\n$$\nZ_{\\mathrm{eff}}=Z-S,\n$$\nwhere $S$ is the shielding constant. For an isoelectronic series, the electron configuration and hence the shielding are approximately the same, so $S$ is roughly constant across the series. Therefore, $Z_{\\mathrm{eff}}$ increases monotonically with $Z$.\n\nThe ionic or atomic radius decreases as $Z_{\\mathrm{eff}}$ increases, with the qualitative scaling\n$$\nr \\propto \\frac{1}{Z_{\\mathrm{eff}}}.\n$$\nThus, among isoelectronic species, the one with the largest $Z$ has the smallest radius.\n\nNow identify $Z$ for each species:\n- For $\\text{Cl}^{-}$, $Z=17$.\n- For $\\text{Ar}$, $Z=18$.\n- For $\\text{K}^{+}$, $Z=19$.\n\nHence\n$$\nZ_{\\mathrm{eff}}(\\text{K}^{+})>Z_{\\mathrm{eff}}(\\text{Ar})>Z_{\\mathrm{eff}}(\\text{Cl}^{-}),\n$$\nwhich implies\n$$\nr(\\text{K}^{+})<r(\\text{Ar})<r(\\text{Cl}^{-}).\n$$\nThis is the order of increasing radius: $\\text{K}^{+}<\\text{Ar}<\\text{Cl}^{-}$, which corresponds to option A.", "answer": "$$\\boxed{A}$$", "id": "1321084"}, {"introduction": "The theoretical stability of an ionic compound is a critical question in materials chemistry, often assessed using thermodynamic cycles like the Born-Haber cycle. This exercise focuses on a crucial part of such a cycle: calculating the total energy required to form gaseous ions from their elements. By combining the enthalpy of atomization, multiple ionization energies ($IE$), and electron affinities ($EA$), you will see how these individual periodic properties contribute to the overall energetics of ion formation, including the important concept of why adding a second electron to an anion is an energetically unfavorable process [@problem_id:1321073].", "problem": "In the field of materials chemistry, chemists often use thermodynamic cycles to assess the theoretical stability of novel ionic compounds. Imagine you are studying a hypothetical crystalline solid, Magnesium Selenide ($\\text{MgSe}$), a semiconductor with potential applications in electronics. Your goal is to calculate a key component of the energy budget for its formation: the energy required to create the gaseous ions from their constituent elements.\n\nCalculate the total enthalpy change, $\\Delta H_{\\text{total}}$, for the conversion of one mole of solid magnesium ($\\text{Mg}(s)$) and one mole of gaseous selenium atoms ($\\text{Se}(g)$) into one mole of gaseous magnesium ions ($\\text{Mg}^{2+}(g)$) and one mole of gaseous selenide ions ($\\text{Se}^{2-}(g)$).\n\nUse the following thermochemical data:\n-   Enthalpy of atomization of Magnesium, $\\Delta H_{\\text{atom}}[\\text{Mg}(s)]$: $+148$ kJ/mol\n-   First ionization energy of Magnesium, $IE_1[\\text{Mg}(g)]$: $+738$ kJ/mol\n-   Second ionization energy of Magnesium, $IE_2[\\text{Mg}(g)]$: $+1451$ kJ/mol\n-   First electron affinity of Selenium, $EA_1[\\text{Se}(g)]$: $-195$ kJ/mol\n-   Second electron affinity of Selenium, $EA_2[\\text{Se}(g)]$: $+499.5$ kJ/mol\n\nExpress your final answer in kJ/mol, rounded to four significant figures.", "solution": "The problem asks for the total enthalpy change, $\\Delta H_{\\text{total}}$, for the overall reaction:\n$$\\text{Mg}(s) + \\text{Se}(g) \\rightarrow \\text{Mg}^{2+}(g) + \\text{Se}^{2-}(g)$$\nTo find this total enthalpy change, we can break down the overall process into a series of individual steps for magnesium and selenium and then sum their enthalpy changes, according to Hess's Law.\n\nFirst, let's consider the formation of one mole of gaseous magnesium ions, $\\text{Mg}^{2+}(g)$, from one mole of solid magnesium, $\\text{Mg}(s)$. This process can be divided into three steps:\n\n1.  **Atomization of Magnesium:** Solid magnesium is converted into gaseous magnesium atoms.\n    $$\\text{Mg}(s) \\rightarrow \\text{Mg}(g)$$\n    The enthalpy change for this step is the enthalpy of atomization, $\\Delta H_{\\text{atom}}[\\text{Mg}(s)] = +148$ kJ/mol.\n\n2.  **First Ionization of Magnesium:** One electron is removed from each gaseous magnesium atom.\n    $$\\text{Mg}(g) \\rightarrow \\text{Mg}^{+}(g) + e^{-}$$\n    The enthalpy change is the first ionization energy, $IE_1[\\text{Mg}(g)] = +738$ kJ/mol.\n\n3.  **Second Ionization of Magnesium:** A second electron is removed from each gaseous magnesium ion.\n    $$\\text{Mg}^{+}(g) \\rightarrow \\text{Mg}^{2+}(g) + e^{-}$$\n    The enthalpy change is the second ionization energy, $IE_2[\\text{Mg}(g)] = +1451$ kJ/mol.\n\nThe total enthalpy change for the formation of $\\text{Mg}^{2+}(g)$ from $\\text{Mg}(s)$ is the sum of these three steps:\n$\\Delta H_{\\text{Mg}} = \\Delta H_{\\text{atom}}[\\text{Mg}(s)] + IE_1[\\text{Mg}(g)] + IE_2[\\text{Mg}(g)]$\n$\\Delta H_{\\text{Mg}} = 148 \\text{ kJ/mol} + 738 \\text{ kJ/mol} + 1451 \\text{ kJ/mol} = 2337 \\text{ kJ/mol}$\n\nNext, let's consider the formation of one mole of gaseous selenide ions, $\\text{Se}^{2-}(g)$, from one mole of gaseous selenium atoms, $\\text{Se}(g)$. This process involves two steps, which correspond to the first and second electron affinities.\n\n1.  **First Electron Affinity of Selenium:** Each gaseous selenium atom gains one electron.\n    $$\\text{Se}(g) + e^{-} \\rightarrow \\text{Se}^{-}(g)$$\n    The enthalpy change is the first electron affinity, $EA_1[\\text{Se}(g)] = -195$ kJ/mol. This process is exothermic, releasing energy.\n\n2.  **Second Electron Affinity of Selenium:** Each gaseous selenide anion, $\\text{Se}^{-}(g)$, gains a second electron.\n    $$\\text{Se}^{-}(g) + e^{-} \\rightarrow \\text{Se}^{2-}(g)$$\n    The enthalpy change is the second electron affinity, $EA_2[\\text{Se}(g)] = +499.5$ kJ/mol. This process is endothermic, requiring energy input to overcome the electrostatic repulsion between the negative ion ($\\text{Se}^-$) and the incoming electron.\n\nThe total enthalpy change for the formation of $\\text{Se}^{2-}(g)$ from $\\text{Se}(g)$ is the sum of these two steps:\n$\\Delta H_{\\text{Se}} = EA_1[\\text{Se}(g)] + EA_2[\\text{Se}(g)]$\n$\\Delta H_{\\text{Se}} = -195 \\text{ kJ/mol} + 499.5 \\text{ kJ/mol} = 304.5 \\text{ kJ/mol}$\n\nFinally, the total enthalpy change for the overall process is the sum of the enthalpy changes for the magnesium and selenium processes. Note that the electrons produced during the ionization of magnesium are consumed during the formation of the selenide ion.\n$\\Delta H_{\\text{total}} = \\Delta H_{\\text{Mg}} + \\Delta H_{\\text{Se}}$\n$\\Delta H_{\\text{total}} = 2337 \\text{ kJ/mol} + 304.5 \\text{ kJ/mol}$\n$\\Delta H_{\\text{total}} = 2641.5 \\text{ kJ/mol}$\n\nThe problem requires the answer to be rounded to four significant figures.\nRounding $2641.5$ to four significant figures gives $2642$.", "answer": "$$\\boxed{2642}$$", "id": "1321073"}, {"introduction": "While general periodic trends provide a useful qualitative guide, a deeper quantitative understanding is often necessary to explain the properties of materials like semiconductors. This practice introduces Slater's rules, a powerful empirical model for estimating the shielding effect of inner-shell electrons and calculating the effective nuclear charge ($Z_{\\text{eff}}$). By applying these rules, you will move beyond simple trends to perform a quantitative calculation that explains the nuanced relationship between ionization energies of elements in the same group, such as Germanium and Tin [@problem_id:1321095].", "problem": "In the field of semiconductor physics, the electronic properties of elements in Group 14 are of paramount importance. To understand trends in these properties, simplified atomic models are often employed. One such tool is the set of empirical rules developed by John C. Slater to estimate the effective nuclear charge ($Z_{\\text{eff}}$) experienced by an electron.\n\nConsider the elements Germanium ($\\text{Ge}$), with atomic number $Z=32$, and Tin ($\\text{Sn}$), with atomic number $Z=50$. Their chemical behavior, including ionization energy, is largely determined by their valence electrons. Using a simplified model, we can estimate the first ionization energy ($I_1$) as being proportional to the square of the ratio of the effective nuclear charge to the principal quantum number of the valence shell, i.e., $I_1 \\propto \\left(\\frac{Z_{\\text{eff}}}{n}\\right)^2$.\n\nYour task is to calculate the theoretical ratio of the first ionization energy of Tin to that of Germanium, $\\frac{I_1(\\text{Sn})}{I_1(\\text{Ge})}$, based on this model.\n\nTo do this, you must first calculate $Z_{\\text{eff}} = Z - \\sigma$, where $\\sigma$ is the shielding constant determined by Slater's rules provided below:\n\n**Slater's Rules for calculating the shielding constant $\\sigma$ for an electron in an s- or p-orbital:**\n\n1.  Write the electron configuration of the atom and group the orbitals as follows: `(1s)`, `(2s, 2p)`, `(3s, 3p)`, `(3d)`, `(4s, 4p)`, `(4d)`, `(4f)`, `(5s, 5p)`, ...\n2.  For the electron of interest (a valence `s`- or `p`-electron), electrons in groups to the right of its group contribute nothing to the shielding.\n3.  All other electrons in the same `(ns, np)` group as the electron of interest contribute 0.35 each to $\\sigma$.\n4.  All electrons in the $(n-1)$ shell contribute 0.85 each to $\\sigma$.\n5.  All electrons in shells $(n-2)$ or lower contribute 1.00 each to $\\sigma$.\n\nUsing this information, calculate the value of the ratio $\\frac{I_1(\\text{Sn})}{I_1(\\text{Ge})}$. Round your final answer to three significant figures.", "solution": "We model the first ionization energy as $I_{1} \\propto \\left(\\dfrac{Z_{\\text{eff}}}{n}\\right)^{2}$ for a valence $s$- or $p$-electron. Thus the ratio is\n$$\n\\frac{I_{1}(\\text{Sn})}{I_{1}(\\text{Ge})}=\\left(\\frac{Z_{\\text{eff}}(\\text{Sn})/n_{\\text{Sn}}}{Z_{\\text{eff}}(\\text{Ge})/n_{\\text{Ge}}}\\right)^{2}=\\left(\\frac{Z_{\\text{eff}}(\\text{Sn})}{Z_{\\text{eff}}(\\text{Ge})}\\cdot\\frac{n_{\\text{Ge}}}{n_{\\text{Sn}}}\\right)^{2}.\n$$\n\nWe compute $Z_{\\text{eff}}=Z-\\sigma$ using Slater’s rules for a valence $p$ electron (the $s$ case gives the same count here):\n\nFor $\\text{Ge}$ ($Z=32$, configuration: $1s^2 2s^2 2p^6 3s^2 3p^6 3d^{10} 4s^2 4p^2$, valence $n=4$):\n- Same $(4s,4p)$ group other electrons: $3 \\times 0.35 = 1.05$.\n- $(n-1)=3$ shell electrons: $3s^2 3p^6 3d^{10}$ gives $18$ electrons, contributing $18 \\times 0.85 = 15.3$.\n- $(n-2)$ or lower ($n\\leq 2$): $1s^2 2s^2 2p^6$ gives $10$ electrons, contributing $10 \\times 1.00 = 10$.\nThus\n$$\n\\sigma_{\\text{Ge}}=1.05+15.3+10=26.35, \\quad Z_{\\text{eff}}(\\text{Ge})=32-26.35=5.65.\n$$\n\nFor $\\text{Sn}$ ($Z=50$, configuration: $1s^2 2s^2 2p^6 3s^2 3p^6 3d^{10} 4s^2 4p^6 4d^{10} 5s^2 5p^2$, valence $n=5$):\n- Same $(5s,5p)$ group other electrons: $3 \\times 0.35 = 1.05$.\n- $(n-1)=4$ shell electrons: $4s^2 4p^6 4d^{10}$ gives $18$ electrons, contributing $18 \\times 0.85 = 15.3$.\n- $(n-2)$ or lower ($n\\leq 3$): $1s^2 2s^2 2p^6 3s^2 3p^6 3d^{10}$ gives $28$ electrons, contributing $28 \\times 1.00 = 28$.\nThus\n$$\n\\sigma_{\\text{Sn}}=1.05+15.3+28=44.35, \\quad Z_{\\text{eff}}(\\text{Sn})=50-44.35=5.65.\n$$\n\nTherefore $Z_{\\text{eff}}(\\text{Sn})=Z_{\\text{eff}}(\\text{Ge})$, and with $n_{\\text{Ge}}=4$, $n_{\\text{Sn}}=5$,\n$$\n\\frac{I_{1}(\\text{Sn})}{I_{1}(\\text{Ge})}=\\left(\\frac{4}{5}\\right)^{2}=\\frac{16}{25}=0.64.\n$$\nRounded to three significant figures, this is $0.640$.", "answer": "$$\\boxed{0.640}$$", "id": "1321095"}]}