{"hands_on_practices": [{"introduction": "Electron affinity is not merely an abstract atomic property; it is a critical thermodynamic quantity that can be determined through clever application of Hess's Law. This practice guides you through a Born–Haber cycle, a powerful tool that connects macroscopic measurements like enthalpy of formation to the microscopic energies of atoms and ions. By working through the thermochemistry of sodium chloride formation, you will see how electron affinity is determined from experimental data and gain an appreciation for how its uncertainty is influenced by other measured values in the cycle [@problem_id:2950234].", "problem": "A chemist seeks to determine the first electron affinity of chlorine, $EA(\\text{Cl})$, from a Born–Haber cycle constructed for the formation of sodium chloride crystal. All quantities are standard molar enthalpies at $T=298\\,\\text{K}$ and $p=1\\,\\text{bar}$. The enthalpy of electron attachment, $\\Delta H_{EA}^\\circ(\\text{Cl})$, is the enthalpy change for the process $\\text{Cl(g)} + e^{-} \\to \\text{Cl}^{-}\\text{(g)}$. The electron affinity, $EA(\\text{Cl})$, is defined as $-\\Delta H_{EA}^\\circ(\\text{Cl})$, meaning a positive value indicates an exothermic process.\n\nThe given data are:\n- Standard enthalpy of formation of crystalline sodium chloride: $\\Delta H_{f}^{\\circ}[\\text{NaCl(s)}] = -411.12 \\pm 0.20\\,\\text{kJ mol}^{-1}$.\n- Standard enthalpy of sublimation of sodium: $\\Delta H_{\\text{sub}}^{\\circ}[\\text{Na(s)} \\to \\text{Na(g)}] = +108.90 \\pm 0.50\\,\\text{kJ mol}^{-1}$.\n- Bond dissociation enthalpy of chlorine: $D_{0}[\\text{Cl}_{2}\\text{(g)}] = +242.60 \\pm 0.20\\,\\text{kJ mol}^{-1}$.\n- First ionization energy of sodium (as an enthalpy): $\\text{IE}_{1}[\\text{Na(g)} \\to \\text{Na}^{+}\\text{(g)} + e^{-}] = +495.80 \\pm 0.10\\,\\text{kJ mol}^{-1}$.\n- Lattice enthalpy (association) of sodium chloride: $\\Delta H_{\\text{latt}}^{\\circ}[\\text{Na}^{+}\\text{(g)} + \\text{Cl}^{-}\\text{(g)} \\to \\text{NaCl(s)}] = -787.30 \\pm 5.00\\,\\text{kJ mol}^{-1}$.\n\nUsing Hess’s law and only core thermochemical definitions, do the following:\n- Derive, by explicit algebraic steps, an expression that isolates $\\Delta H_{EA}^\\circ(\\text{Cl})$ in terms of the provided quantities.\n- Evaluate $\\Delta H_{EA}^\\circ(\\text{Cl})$ and then $EA(\\text{Cl})$ numerically.\n- Assuming the quoted uncertainties are uncorrelated one-standard-deviation values, propagate uncertainty by linear Gaussian error propagation to identify which single input quantity most strongly controls the standard uncertainty in $\\Delta H_{EA}^\\circ(\\text{Cl})$.\n\nExpress the final numerical value of the electron affinity, $EA(\\text{Cl})$, in $\\text{kJ mol}^{-1}$ and round your answer to four significant figures.", "solution": "The problem statement is submitted for validation. We proceed with a systematic analysis based on fundamental principles of thermodynamics.\n\nFirst, we extract the givens provided in the problem statement verbatim.\n- Standard enthalpy of formation of crystalline sodium chloride: $\\Delta H_{f}^{\\circ}[\\text{NaCl(s)}] = -411.12 \\pm 0.20\\,\\text{kJ mol}^{-1}$.\n- Standard enthalpy of sublimation of sodium: $\\Delta H_{\\text{sub}}^{\\circ}[\\text{Na(s)} \\to \\text{Na(g)}] = +108.90 \\pm 0.50\\,\\text{kJ mol}^{-1}$.\n- Bond dissociation enthalpy of chlorine: $D_{0}[\\text{Cl}_{2}\\text{(g)}] = +242.60 \\pm 0.20\\,\\text{kJ mol}^{-1}$.\n- First ionization energy of sodium (enthalpy): $\\text{IE}_{1}[\\text{Na(g)} \\to \\text{Na}^{+}\\text{(g)} + e^{-}] = +495.80 \\pm 0.10\\,\\text{kJ mol}^{-1}$.\n- Lattice enthalpy of sodium chloride (for association): $\\Delta H_{\\text{latt}}^{\\circ}[\\text{Na}^{+}\\text{(g)} + \\text{Cl}^{-}\\text{(g)} \\to \\text{NaCl(s)}] = -787.30 \\pm 5.00\\,\\text{kJ mol}^{-1}$.\n- Definition of enthalpy of electron attachment: $\\Delta H_{EA}^\\circ(\\text{Cl})$ is the enthalpy change for the process $\\text{Cl(g)} + e^{-} \\to \\text{Cl}^{-}\\text{(g)}$.\n- Thermodynamic conditions are standard state: $T=298\\,\\text{K}$ and $p=1\\,\\text{bar}$.\n\nNext, we validate the problem. The problem describes the construction of a Born–Haber cycle for sodium chloride. This is a direct application of Hess's law, which states that the total enthalpy change for a chemical reaction is independent of the pathway taken. The problem provides a complete and self-consistent set of standard thermochemical data to construct the cycle. The definitions and sign conventions are stated unambiguously. The problem is scientifically grounded, well-posed, and objective. It contains no logical contradictions, unspecified parameters, or violations of physical law.\n\nVerdict: The problem is valid. We will now provide a complete solution.\n\nThe Born–Haber cycle for the formation of sodium chloride, $\\text{NaCl(s)}$, from its elements in their standard states, $\\text{Na(s)}$ and $\\text{Cl}_2\\text{(g)}$, equates the standard enthalpy of formation, $\\Delta H_{f}^{\\circ}[\\text{NaCl(s)}]$, to the sum of enthalpies of a sequence of hypothetical steps. The overall reaction is:\n$$ \\text{Na(s)} + \\frac{1}{2}\\text{Cl}_{2}\\text{(g)} \\to \\text{NaCl(s)} \\quad (\\Delta H_{f}^{\\circ}) $$\nThe cycle consists of the following steps:\n1. Sublimation of solid sodium: $\\text{Na(s)} \\to \\text{Na(g)}$, with enthalpy change $\\Delta H_{\\text{sub}}^{\\circ}[\\text{Na}]$.\n2. Dissociation of molecular chlorine: $\\frac{1}{2}\\text{Cl}_{2}\\text{(g)} \\to \\text{Cl(g)}$. The enthalpy change for this process is half the bond dissociation enthalpy, $\\frac{1}{2}D_{0}[\\text{Cl}_{2}]$.\n3. Ionization of gaseous sodium: $\\text{Na(g)} \\to \\text{Na}^{+}\\text{(g)} + e^{-}$, with enthalpy change $\\text{IE}_{1}[\\text{Na}]$.\n4. Electron attachment to gaseous chlorine: $\\text{Cl(g)} + e^{-} \\to \\text{Cl}^{-}\\text{(g)}$, with enthalpy change $\\Delta H_{EA}^\\circ(\\text{Cl})$.\n5. Formation of the crystal lattice from gaseous ions: $\\text{Na}^{+}\\text{(g)} + \\text{Cl}^{-}\\text{(g)} \\to \\text{NaCl(s)}$, with enthalpy change $\\Delta H_{\\text{latt}}^{\\circ}[\\text{NaCl}]$.\n\nAccording to Hess's law, the sum of these enthalpy changes must equal the standard enthalpy of formation:\n$$ \\Delta H_{f}^{\\circ}[\\text{NaCl(s)}] = \\Delta H_{\\text{sub}}^{\\circ}[\\text{Na}] + \\frac{1}{2}D_{0}[\\text{Cl}_{2}] + \\text{IE}_{1}[\\text{Na}] + \\Delta H_{EA}^\\circ(\\text{Cl}) + \\Delta H_{\\text{latt}}^{\\circ}[\\text{NaCl}] $$\nTo find the enthalpy of electron attachment for chlorine, $\\Delta H_{EA}^\\circ(\\text{Cl})$, we algebraically isolate this term. This derivation is trivial but necessary for formal completeness.\n$$ \\Delta H_{EA}^\\circ(\\text{Cl}) = \\Delta H_{f}^{\\circ}[\\text{NaCl(s)}] - \\Delta H_{\\text{sub}}^{\\circ}[\\text{Na}] - \\frac{1}{2}D_{0}[\\text{Cl}_{2}] - \\text{IE}_{1}[\\text{Na}] - \\Delta H_{\\text{latt}}^{\\circ}[\\text{NaCl}] $$\nNow, we substitute the provided numerical values into this expression. First, we compute the enthalpy of atomization for chlorine:\n$$ \\frac{1}{2}D_{0}[\\text{Cl}_{2}] = \\frac{1}{2} \\times (+242.60\\,\\text{kJ mol}^{-1}) = +121.30\\,\\text{kJ mol}^{-1} $$\nSubstituting all values:\n$$ \\Delta H_{EA}^\\circ(\\text{Cl}) = (-411.12) - (+108.90) - (+121.30) - (+495.80) - (-787.30) \\,\\text{kJ mol}^{-1} $$\n$$ \\Delta H_{EA}^\\circ(\\text{Cl}) = -411.12 - 108.90 - 121.30 - 495.80 + 787.30 \\,\\text{kJ mol}^{-1} $$\n$$ \\Delta H_{EA}^\\circ(\\text{Cl}) = -1137.12 + 787.30 \\,\\text{kJ mol}^{-1} $$\n$$ \\Delta H_{EA}^\\circ(\\text{Cl}) = -349.82 \\,\\text{kJ mol}^{-1} $$\nFrom this, we find the electron affinity: $EA(\\text{Cl}) = - \\Delta H_{EA}^\\circ(\\text{Cl}) = -(-349.82\\,\\text{kJ mol}^{-1}) = +349.82\\,\\text{kJ mol}^{-1}$. The problem requires the answer to be rounded to four significant figures. Thus, $EA(\\text{Cl}) = 349.8\\,\\text{kJ mol}^{-1}$.\n\nNext, we address the uncertainty analysis. The expression for $\\Delta H_{EA}^\\circ(\\text{Cl})$ is a linear combination of the input variables. Let the input quantities be $X_1 = \\Delta H_{f}^{\\circ}$, $X_2 = \\Delta H_{\\text{sub}}^{\\circ}$, $X_3 = D_{0}$, $X_4 = \\text{IE}_{1}$, and $X_5 = \\Delta H_{\\text{latt}}^{\\circ}$. Then $\\Delta H_{EA}^\\circ = X_1 - X_2 - \\frac{1}{2}X_3 - X_4 - X_5$.\nAssuming the uncertainties, $\\sigma_{X_i}$, are uncorrelated, the variance of the result, $\\sigma_{\\Delta H_{EA}^\\circ}^2$, is given by the formula for linear propagation of uncertainty:\n$$ \\sigma_{\\Delta H_{EA}^\\circ}^2 = \\left(\\frac{\\partial \\Delta H_{EA}^\\circ}{\\partial X_1}\\right)^2 \\sigma_{X_1}^2 + \\left(\\frac{\\partial \\Delta H_{EA}^\\circ}{\\partial X_2}\\right)^2 \\sigma_{X_2}^2 + \\left(\\frac{\\partial \\Delta H_{EA}^\\circ}{\\partial X_3}\\right)^2 \\sigma_{X_3}^2 + \\left(\\frac{\\partial \\Delta H_{EA}^\\circ}{\\partial X_4}\\right)^2 \\sigma_{X_4}^2 + \\left(\\frac{\\partial \\Delta H_{EA}^\\circ}{\\partial X_5}\\right)^2 \\sigma_{X_5}^2 $$\nThe partial derivatives are:\n$\\frac{\\partial \\Delta H_{EA}^\\circ}{\\partial X_1} = 1$, $\\frac{\\partial \\Delta H_{EA}^\\circ}{\\partial X_2} = -1$, $\\frac{\\partial \\Delta H_{EA}^\\circ}{\\partial X_3} = -\\frac{1}{2}$, $\\frac{\\partial \\Delta H_{EA}^\\circ}{\\partial X_4} = -1$, $\\frac{\\partial \\Delta H_{EA}^\\circ}{\\partial X_5} = -1$.\nSo, the variance becomes:\n$$ \\sigma_{\\Delta H_{EA}^\\circ}^2 = (1)^2\\sigma_{\\Delta H_f}^2 + (-1)^2\\sigma_{\\Delta H_{\\text{sub}}}^2 + \\left(-\\frac{1}{2}\\right)^2\\sigma_{D_0}^2 + (-1)^2\\sigma_{\\text{IE}_1}^2 + (-1)^2\\sigma_{\\Delta H_{\\text{latt}}}^2 $$\n$$ \\sigma_{\\Delta H_{EA}^\\circ}^2 = \\sigma_{\\Delta H_f}^2 + \\sigma_{\\Delta H_{\\text{sub}}}^2 + \\frac{1}{4}\\sigma_{D_0}^2 + \\sigma_{\\text{IE}_1}^2 + \\sigma_{\\Delta H_{\\text{latt}}}^2 $$\nWe are given the standard deviations ($\\sigma$):\n- $\\sigma_{\\Delta H_f} = 0.20\\,\\text{kJ mol}^{-1}$\n- $\\sigma_{\\Delta H_{\\text{sub}}} = 0.50\\,\\text{kJ mol}^{-1}$\n- $\\sigma_{D_0} = 0.20\\,\\text{kJ mol}^{-1}$\n- $\\sigma_{\\text{IE}_1} = 0.10\\,\\text{kJ mol}^{-1}$\n- $\\sigma_{\\Delta H_{\\text{latt}}} = 5.00\\,\\text{kJ mol}^{-1}$\nNow, we calculate the contribution of each term to the total variance $\\sigma_{\\Delta H_{EA}^\\circ}^2$:\n- Contribution from $\\Delta H_{f}^{\\circ}$: $\\sigma_{\\Delta H_f}^2 = (0.20)^2 = 0.04$\n- Contribution from $\\Delta H_{\\text{sub}}^{\\circ}$: $\\sigma_{\\Delta H_{\\text{sub}}}^2 = (0.50)^2 = 0.25$\n- Contribution from $D_{0}$: $\\frac{1}{4}\\sigma_{D_0}^2 = \\frac{1}{4}(0.20)^2 = \\frac{1}{4}(0.04) = 0.01$\n- Contribution from $\\text{IE}_{1}$: $\\sigma_{\\text{IE}_1}^2 = (0.10)^2 = 0.01$\n- Contribution from $\\Delta H_{\\text{latt}}^{\\circ}$: $\\sigma_{\\Delta H_{\\text{latt}}}^2 = (5.00)^2 = 25.00$\n\nThe total variance is $\\sigma_{\\Delta H_{EA}^\\circ}^2 = 0.04 + 0.25 + 0.01 + 0.01 + 25.00 = 25.31$.\nBy comparing the individual variance contributions, it is immediately obvious that the term corresponding to the lattice enthalpy, $\\Delta H_{\\text{latt}}^{\\circ}$, is dominant. Its contribution to the variance is $25.00$, whereas the sum of all other contributions is merely $0.31$.\nTherefore, the single input quantity that most strongly controls the standard uncertainty in the calculated value of $\\Delta H_{EA}^\\circ(\\text{Cl})$ is the lattice enthalpy, $\\Delta H_{\\text{latt}}^{\\circ}$. This is because its absolute uncertainty is an order of magnitude larger than that of any other quantity in the cycle.\nThe final numerical result for the electron affinity is presented below.", "answer": "$$\\boxed{349.8}$$", "id": "2950234"}, {"introduction": "To rationalize the experimental values of electron affinity, we must turn to models of atomic structure. This exercise employs Slater's rules to estimate the effective nuclear charge ($Z_{\\text{eff}}$), a core concept that quantifies the net attraction experienced by a valence electron. By calculating $Z_{\\text{eff}}$ for key nonmetals, you will develop a first-principles understanding of how nuclear charge, shielding, and electron-electron repulsion combine to govern electron affinity trends and explain notable exceptions like the ordering for fluorine and chlorine [@problem_id:2950257].", "problem": "Consider the periodic trend of electron affinities for main-group nonmetals. Electron affinity (EA), which is taken as positive for an exothermic process, is the energy released by the process $X(g) + e^{-} \\to X^{-}(g)$. A central factor governing EA is the balance between the attractive electron–nucleus interaction and electron–electron repulsion in the valence shell. An approximate way to quantify the net attractive interaction experienced by a valence electron is through the effective nuclear charge $Z_{\\text{eff}}$, defined by $Z_{\\text{eff}} = Z - S$, where $Z$ is the nuclear charge (atomic number) and $S$ is a shielding constant estimated using Slater’s rules.\n\nUse Slater’s rules for an $n s$ or $n p$ valence electron:\n- Electrons in the same principal shell $n$ contribute $0.35$ each to $S$, except that $1s$ electrons contribute $0.30$ to $S$ for another $1s$ electron.\n- Electrons in the $(n-1)$ shell contribute $0.85$ each to $S$.\n- Electrons in the $(n-2)$ and lower shells contribute $1.00$ each to $S$.\n\nTake the atomic numbers as $Z(\\text{O}) = 8$, $Z(\\text{F}) = 9$, and $Z(\\text{Cl}) = 17$. For each atom, treat the valence $p$ electron as the electron of interest, and estimate $Z_{\\text{eff}}$ via Slater’s rules. Then, using first-principles reasoning based on $Z_{\\text{eff}}$, subshell occupancy, and valence-shell size, predict the qualitative ordering of $EA$ among $\\text{O}$, $\\text{F}$, and $\\text{Cl}$, explaining why the ordering is expected on physical grounds.\n\nFinally, define\n$$\n\\Sigma \\equiv Z_{\\text{eff}}(\\text{O}) + Z_{\\text{eff}}(\\text{F}) + Z_{\\text{eff}}(\\text{Cl}).\n$$\nCompute $\\Sigma$ from your Slater-rule estimates and report its value. Round your numerical result to four significant figures. Provide the final numerical value of $\\Sigma$ without units.", "solution": "The problem statement is validated as scientifically grounded, well-posed, and objective. It is based on established principles of general chemistry, namely electron affinity, effective nuclear charge, and Slater's rules, and provides all necessary information for a unique solution. We will proceed with the analysis.\n\nThe task is to first estimate the effective nuclear charge, $Z_{\\text{eff}}$, for a valence $p$ electron in oxygen ($\\text{O}$), fluorine ($\\text{F}$), and chlorine ($\\text{Cl}$) using Slater's rules. Then, based on these values and fundamental principles, we must predict the qualitative ordering of the electron affinities ($\\text{EA}$) for these elements. Finally, we must compute the sum $\\Sigma$ of the estimated $Z_{\\text{eff}}$ values.\n\nThe effective nuclear charge is given by the relation $Z_{\\text{eff}} = Z - S$, where $Z$ is the atomic number and $S$ is the shielding constant. We calculate $S$ for a valence $p$ electron in each atom according to the provided rules.\n\n**1. Calculation of $Z_{\\text{eff}}$ for Oxygen ($Z=8$)**\n\nThe ground-state electron configuration of oxygen is $1s^2 2s^2 2p^4$. For applying Slater's rules, we group the orbitals as $(1s^2) (2s^2 2p^4)$. The electron of interest is a $2p$ electron in the $n=2$ valence shell.\n\n- To calculate the shielding constant $S$ for this electron, we consider the other electrons:\n- There are $2+4-1 = 5$ other electrons in the same principal shell ($n=2$). Each contributes $0.35$ to $S$. Contribution: $5 \\times 0.35 = 1.75$.\n- There are $2$ electrons in the inner shell ($n-1=1$). Each contributes $0.85$ to $S$. Contribution: $2 \\times 0.85 = 1.70$.\n\n- The total shielding constant for oxygen is:\n$$S(\\text{O}) = (5 \\times 0.35) + (2 \\times 0.85) = 1.75 + 1.70 = 3.45$$\n\n- The effective nuclear charge is:\n$$Z_{\\text{eff}}(\\text{O}) = Z(\\text{O}) - S(\\text{O}) = 8 - 3.45 = 4.55$$\n\n**2. Calculation of $Z_{\\text{eff}}$ for Fluorine ($Z=9$)**\n\nThe electron configuration of fluorine is $1s^2 2s^2 2p^5$. The grouping is $(1s^2) (2s^2 2p^5)$. The electron of interest is a $2p$ electron in the $n=2$ valence shell.\n\n- To calculate $S$:\n- There are $2+5-1 = 6$ other electrons in the same principal shell ($n=2$). Each contributes $0.35$ to $S$. Contribution: $6 \\times 0.35 = 2.10$.\n- There are $2$ electrons in the inner shell ($n-1=1$). Each contributes $0.85$ to $S$. Contribution: $2 \\times 0.85 = 1.70$.\n\n- The total shielding constant for fluorine is:\n$$S(\\text{F}) = (6 \\times 0.35) + (2 \\times 0.85) = 2.10 + 1.70 = 3.80$$\n\n- The effective nuclear charge is:\n$$Z_{\\text{eff}}(\\text{F}) = Z(\\text{F}) - S(\\text{F}) = 9 - 3.80 = 5.20$$\n\n**3. Calculation of $Z_{\\text{eff}}$ for Chlorine ($Z=17$)**\n\nThe electron configuration of chlorine is $1s^2 2s^2 2p^6 3s^2 3p^5$. The grouping is $(1s^2) (2s^2 2p^6) (3s^2 3p^5)$. The electron of interest is a $3p$ electron in the $n=3$ valence shell.\n\n- To calculate $S$:\n- There are $2+5-1 = 6$ other electrons in the same principal shell ($n=3$). Each contributes $0.35$ to $S$. Contribution: $6 \\times 0.35 = 2.10$.\n- There are $2+6 = 8$ electrons in the next inner shell ($n-1=2$). Each contributes $0.85$ to $S$. Contribution: $8 \\times 0.85 = 6.80$.\n- There are $2$ electrons in the deeper shells ($n-2=1$). Each contributes $1.00$ to $S$. Contribution: $2 \\times 1.00 = 2.00$.\n\n- The total shielding constant for chlorine is:\n$$S(\\text{Cl}) = (6 \\times 0.35) + (8 \\times 0.85) + (2 \\times 1.00) = 2.10 + 6.80 + 2.00 = 10.90$$\n\n- The effective nuclear charge is:\n$$Z_{\\text{eff}}(\\text{Cl}) = Z(\\text{Cl}) - S(\\text{Cl}) = 17 - 10.90 = 6.10$$\n\n**4. Qualitative Ordering of Electron Affinity ($\\text{EA}$)**\n\nElectron affinity is the energy released when an atom in the gas phase accepts an electron. A larger positive value indicates a stronger attraction for the electron. This attraction is primarily governed by $Z_{\\text{eff}}$, but also by the principal quantum number $n$ of the valence shell (which determines its size) and electron-electron repulsion within that shell.\n\nOur calculated values are $Z_{\\text{eff}}(\\text{O}) = 4.55$, $Z_{\\text{eff}}(\\text{F}) = 5.20$, and $Z_{\\text{eff}}(\\text{Cl}) = 6.10$.\n\n- **Comparing $\\text{F}$ and $\\text{O}$:** Both atoms are in Period 2, meaning the incoming electron will enter the same $n=2$ shell. Fluorine ($Z=9$) has a higher nuclear charge and a significantly higher effective nuclear charge than oxygen ($Z=8$), as shown by $Z_{\\text{eff}}(\\text{F}) = 5.20 > Z_{\\text{eff}}(\\text{O}) = 4.55$. The stronger effective nuclear pull of the fluorine nucleus on an incoming electron leads to a greater energy release. Therefore, we predict $\\text{EA}(\\text{F}) > \\text{EA}(\\text{O})$.\n\n- **Comparing $\\text{Cl}$ and $\\text{F}$:** Both are halogens (Group 17). According to our calculation, $Z_{\\text{eff}}(\\text{Cl}) = 6.10$ is greater than $Z_{\\text{eff}}(\\text{F}) = 5.20$. This factor, by itself, would suggest a stronger attraction for an electron by chlorine. However, the accepted electron enters the $n=3$ shell for chlorine, which is physically larger and further from the nucleus than the $n=2$ shell for fluorine. This increased distance would tend to decrease the attraction. The decisive factor is electron-electron repulsion. The valence shell of fluorine ($n=2$) is extremely compact. Adding an eighth electron to this small volume results in substantial electron-electron repulsion, which partially counteracts the nuclear attraction. In contrast, the valence shell of chlorine ($n=3$) is more diffuse. It can accommodate an additional electron with significantly less repulsive penalty. This effect of lower electron-electron repulsion in the larger $3p$ subshell of chlorine outweighs the greater distance from the nucleus and is the primary reason why chlorine's electron affinity is anomalously higher than fluorine's. Thus, we predict $\\text{EA}(\\text{Cl}) > \\text{EA}(\\text{F})$.\n\n- **Final Predicted Order:** Combining the two comparisons, we arrive at the qualitative ordering:\n$$\\text{EA}(\\text{Cl}) > \\text{EA}(\\text{F}) > \\text{EA}(\\text{O})$$\n\nThis order is consistent with experimental observations.\n\n**5. Calculation of $\\Sigma$**\n\nThe problem defines $\\Sigma$ as the sum of the calculated effective nuclear charges:\n$$\\Sigma \\equiv Z_{\\text{eff}}(\\text{O}) + Z_{\\text{eff}}(\\text{F}) + Z_{\\text{eff}}(\\text{Cl})$$\n\nSubstituting the values we computed:\n$$\\Sigma = 4.55 + 5.20 + 6.10$$\n$$\\Sigma = 9.75 + 6.10 = 15.85$$\n\nThe problem requires the result to be rounded to four significant figures. Our result, $15.85$, already has four significant figures.", "answer": "$$\\boxed{15.85}$$", "id": "2950257"}, {"introduction": "The fact that fluorine is the most electronegative element yet does not possess the most exothermic electron affinity reveals a crucial distinction between these two fundamental chemical properties. This practice challenges you to move beyond simple definitions and analyze the physical origins of both electron affinity and electronegativity. By examining the interplay of nuclear attraction, orbital size, and the context of electron capture (isolated atom vs. in a bond), you will solidify your understanding of why these two trends are not perfectly parallel [@problem_id:2950268].", "problem": "Fluorine’s exceptionally high electronegativity does not coincide with the largest electron affinity among the elements, a frequently cited exception to naive periodic trends. Start from the following foundational bases: (i) definition of electron affinity $EA$, where a positive value is conventionally taken for an exothermic process (i.e., $EA = -\\Delta H$ for the electron attachment reaction), (ii) definition of electronegativity $\\chi$ as an atom-in-molecule property quantifying the tendency to attract electron density in a chemical bond, and (iii) qualitative Coulombic scaling of interactions with distance, where the electron–nucleus and electron–electron contributions vary with the mean electron–nucleus separation $r$ roughly as $-Z e^2/(4\\pi\\varepsilon_0 r)$ and $+e^2/(4\\pi\\varepsilon_0 r)$, respectively. Use these to reason about additions of an electron to $\\mathrm{F}$ and $\\mathrm{Cl}$ valence shells, noting that the added electron occupies a $2p$ orbital in $\\mathrm{F}$ and a $3p$ orbital in $\\mathrm{Cl}$. Assume throughout that many-electron effects such as shielding, exchange, and correlation influence effective attractions and repulsions in a manner consistent with well-established quantum chemical trends, and that orbital sizes satisfy $\\langle r \\rangle_{3p} > \\langle r \\rangle_{2p}$.\n\nWhich of the following statements are correct explanations of why the extraordinarily high electronegativity of $\\mathrm{F}$ does not guarantee the highest $EA$, and what this reveals about the distinction between $EA$ and $\\chi$? Select all that apply.\n\nA. In the gas phase, $EA$ quantifies the enthalpy change for $\\mathrm{X(g)} + e^- \\to \\mathrm{X^- (g)}$, whereas $\\chi$ quantifies bond polarization in molecules; consequently, $\\chi$ can be maximal for $\\mathrm{F}$ even if $EA$ is not, because $\\chi$ includes bonding-context contributions that $EA$ does not.\n\nB. The added electron in $\\mathrm{F}$ must enter a compact $2p$ orbital, so short-range electron–electron repulsion and spin-pairing energy are larger than for $\\mathrm{Cl}$, where addition is into a more diffuse $3p$ orbital; this reduces $EA(\\mathrm{F})$ relative to $EA(\\mathrm{Cl})$ despite stronger nuclear attraction in $\\mathrm{F}$.\n\nC. Because the effective nuclear charge $Z_\\mathrm{eff}$ on $2p$ electrons in $\\mathrm{F}$ is larger than on $3p$ electrons in $\\mathrm{Cl}$, it strictly follows that $EA(\\mathrm{F}) > EA(\\mathrm{Cl})$; any contrary observation must be experimental error.\n\nD. The weakness of the $\\mathrm{F{-}F}$ bond directly lowers $EA(\\mathrm{F})$ because $EA$ is computed from diatomic bond energies in the Pauling framework.\n\nE. The Mulliken electronegativity $\\chi_\\mathrm{M} \\approx \\tfrac{1}{2}\\!\\left(I + EA\\right)$ shows that a very large ionization energy $I$ can yield a very large $\\chi$ even if $EA$ is not the largest; hence $EA$ and $\\chi$ need not attain their maxima for the same element.\n\nF. Periodicity requires that both $EA$ and $\\chi$ increase monotonically across a period with no exceptions; therefore the $\\mathrm{F}/\\mathrm{Cl}$ ordering for $EA$ invalidates periodic trends.\n\nG. Short-range exchange and correlation effects grow in importance as orbital radii shrink; in $\\mathrm{F}$, these many-electron effects in the compact $2p$ shell offset nuclear attraction upon electron addition more than in the more diffuse $3p$ shell of $\\mathrm{Cl}$, rationalizing $EA(\\mathrm{Cl}) > EA(\\mathrm{F})$ while leaving $\\chi(\\mathrm{F})$ maximal due to its bond-based definition.", "solution": "The problem statement is subjected to validation.\n\n**1. Extraction of Givens:**\n- Premise: Fluorine ($\\mathrm{F}$) has exceptionally high electronegativity ($\\chi$) but not the largest electron affinity ($EA$).\n- Definition of Electron Affinity: $EA$ is positive for an exothermic process, where $EA = -\\Delta H$ for the reaction $\\mathrm{X(g)} + e^- \\to \\mathrm{X^- (g)}$.\n- Definition of Electronegativity: $\\chi$ is an atom-in-molecule property measuring the tendency to attract electron density in a chemical bond.\n- Coulombic Scaling: Electron-nucleus attraction scales as $-Z e^2/(4\\pi\\varepsilon_0 r)$; electron-electron repulsion scales as $+e^2/(4\\pi\\varepsilon_0 r)$, where $r$ is a mean separation.\n- Orbital Information: The added electron occupies a $2p$ orbital in $\\mathrm{F}$ and a $3p$ orbital in $\\mathrm{Cl}$.\n- Assumptions: Standard quantum chemical trends for many-electron effects hold; mean orbital radius $\\langle r \\rangle_{3p} > \\langle r \\rangle_{2p}$.\n\n**2. Validation:**\n- **Scientific Soundness:** The premise is factually correct. Fluorine is the most electronegative element ($\\chi_{\\text{Pauling}}(\\mathrm{F}) \\approx 3.98$), but chlorine has a more exothermic electron affinity ($EA(\\mathrm{Cl}) \\approx +349 \\, \\mathrm{kJ/mol}$ vs. $EA(\\mathrm{F}) \\approx +328 \\, \\mathrm{kJ/mol}$). The provided definitions and physical principles are standard in chemistry. The problem is scientifically grounded.\n- **Well-Posedness:** The question is well-defined, asking for correct explanations for a known physical phenomenon based on given principles. A unique set of correct statements can be determined.\n- **Objectivity:** The language is formal and objective.\n\n**3. Verdict:**\nThe problem is valid. It is a well-constructed query into the nuanced differences between two fundamental chemical properties.\n\n**Derivation of Solution**\n\nThe electron affinity represents the net energy change from two dominant competing effects:\n1.  **Electron-Nucleus Attraction:** The attraction of the incoming electron to the effective positive charge of the nucleus. This is a stabilizing contribution that increases EA.\n2.  **Electron-Electron Repulsion:** The repulsion between the incoming electron and the electrons already present in the atom's valence shell. This is a destabilizing contribution that decreases EA.\n\nWe are comparing the addition of an electron to fluorine and chlorine.\n- For $\\mathrm{F}$, the electron enters a $2p$ orbital. The valence shell, with principal quantum number $n=2$, is small and compact.\n- For $\\mathrm{Cl}$, the electron enters a $3p$ orbital. The valence shell, with $n=3$, is significantly larger and more diffuse as per the given condition $\\langle r \\rangle_{3p} > \\langle r \\rangle_{2p}$.\n\nThe fluorine atom is smaller than the chlorine atom, and its nucleus exerts a stronger pull on an electron at a given distance. Therefore, the electron-nucleus attraction term is stronger for fluorine. This factor alone would suggest that $EA(\\mathrm{F})$ should be larger than $EA(\\mathrm{Cl})$.\n\nHowever, the compactness of the $n=2$ valence shell of fluorine leads to very high electron density. The addition of an eighth electron into this small volume results in exceptionally large electron-electron repulsion. In contrast, for chlorine, the incoming electron enters the more spacious $n=3$ shell, where the existing valence electrons are spread over a larger volume, resulting in substantially lower electron-electron repulsion.\n\nThe anomaly—that $EA(\\mathrm{Cl})$ is larger than $EA(\\mathrm{F})$—is explained by this repulsion term. For fluorine, the destabilizing effect of electron-electron repulsion is so large that it more than cancels the advantage gained from stronger nuclear attraction.\n\nElectronegativity, $\\chi$, is different. It measures an atom's ability to attract electron density *within a chemical bond*. It is not about the complete capture of an electron to form a gaseous anion. Fluorine's extremely high effective nuclear charge and small size make it unparalleled in its ability to polarize a covalent bond, hence its maximal electronegativity. The specific crowding effect that diminishes its $EA$ is less of a barrier to polarizing a shared electron pair.\n\n**Evaluation of Options**\n\n**A. In the gas phase, $EA$ quantifies the enthalpy change for $\\mathrm{X(g)} + e^- \\to \\mathrm{X^- (g)}$, whereas $\\chi$ quantifies bond polarization in molecules; consequently, $\\chi$ can be maximal for $\\mathrm{F}$ even if $EA$ is not, because $\\chi$ includes bonding-context contributions that $EA$ does not.**\nThis statement is fundamentally correct. It precisely captures the definitional distinction between electron affinity (an isolated atom property) and electronegativity (an atom-in-a-molecule property). This difference in context is essential to understanding why the two properties do not track perfectly.\n**Verdict: Correct.**\n\n**B. The added electron in $\\mathrm{F}$ must enter a compact $2p$ orbital, so short-range electron–electron repulsion and spin-pairing energy are larger than for $\\mathrm{Cl}$, where addition is into a more diffuse $3p$ orbital; this reduces $EA(\\mathrm{F})$ relative to $EA(\\mathrm{Cl})$ despite stronger nuclear attraction in $\\mathrm{F}$.**\nThis statement provides the correct physical mechanism for the $EA$ anomaly. It correctly identifies the high electron-electron repulsion in the compact $2p$ shell of $\\mathrm{F}$ as the key destabilizing factor that makes its electron affinity less positive than that of $\\mathrm{Cl}$. It rightly contrasts this with the situation in the more diffuse $3p$ shell of $\\mathrm{Cl}$ and acknowledges that this repulsion term overcomes the stronger nuclear attraction in $\\mathrm{F}$.\n**Verdict: Correct.**\n\n**C. Because the effective nuclear charge $Z_\\mathrm{eff}$ on $2p$ electrons in $\\mathrm{F}$ is larger than on $3p$ electrons in $\\mathrm{Cl}$, it strictly follows that $EA(\\mathrm{F}) > EA(\\mathrm{Cl})$; any contrary observation must be experimental error.**\nThis is incorrect and demonstrates flawed scientific reasoning. It oversimplifies the problem by considering only one contributing factor (nuclear attraction) while ignoring the other crucial factor (electron-electron repulsion). Experimental facts are paramount; a theory or a simplified model that contradicts robust experimental data is the entity that is flawed, not the experiment. The observed trend is not an error.\n**Verdict: Incorrect.**\n\n**D. The weakness of the $\\mathrm{F{-}F}$ bond directly lowers $EA(\\mathrm{F})$ because $EA$ is computed from diatomic bond energies in the Pauling framework.**\nThis statement incorrectly conflates the definitions of $EA$ and $\\chi$. Pauling *electronegativity* is derived from bond dissociation energies, and indeed the anomalously weak $\\mathrm{F-F}$ bond is a factor in those calculations. However, electron affinity, $EA$, is defined for the process of electron attachment to an isolated gas-phase atom. It is determined experimentally through methods like laser photodetachment spectroscopy and is not calculated from bond energies.\n**Verdict: Incorrect.**\n\n**E. The Mulliken electronegativity $\\chi_\\mathrm{M} \\approx \\tfrac{1}{2}\\!\\left(I + EA\\right)$ shows that a very large ionization energy $I$ can yield a very large $\\chi$ even if $EA$ is not the largest; hence $EA$ and $\\chi$ need not attain their maxima for the same element.**\nThis is a correct and insightful statement. The Mulliken scale provides a theoretical link between electronegativity, ionization energy ($I$), and electron affinity ($EA$). Fluorine's first ionization energy ($I_1(\\mathrm{F}) \\approx 1681 \\, \\mathrm{kJ/mol}$) is vastly larger than chlorine's ($I_1(\\mathrm{Cl}) \\approx 1251 \\, \\mathrm{kJ/mol}$). This large value of $I_1$ is the dominant contributor to fluorine's high Mulliken electronegativity. The analysis shows that even though $EA(\\mathrm{Cl})$ is larger than $EA(\\mathrm{F})$, fluorine's much larger $I_1$ ensures its $\\chi_\\mathrm{M}$ is higher. This correctly demonstrates why $\\chi$ and $EA$ do not have to be maximal for the same element.\n**Verdict: Correct.**\n\n**F. Periodicity requires that both $EA$ and $\\chi$ increase monotonically across a period with no exceptions; therefore the $\\mathrm{F}/\\mathrm{Cl}$ ordering for $EA$ invalidates periodic trends.**\nThis statement is false. \"Periodic trends\" describe general patterns of property variation, not immutable mathematical laws without exception. Science progresses by explaining these exceptions (e.g., the stability of half-filled shells affecting $EA$, or the $\\mathrm{F}/\\mathrm{Cl}$ anomaly), which leads to a deeper, more refined understanding of the underlying principles. An exception does not invalidate a trend; it prompts a more sophisticated model.\n**Verdict: Incorrect.**\n\n**G. Short-range exchange and correlation effects grow in importance as orbital radii shrink; in $\\mathrm{F}$, these many-electron effects in the compact $2p$ shell offset nuclear attraction upon electron addition more than in the more diffuse $3p$ shell of $\\mathrm{Cl}$, rationalizing $EA(\\mathrm{Cl}) > EA(\\mathrm{F})$ while leaving $\\chi(\\mathrm{F})$ maximal due to its bond-based definition.**\nThis is an excellent, physically precise statement. It is a more sophisticated version of statement B. It correctly identifies the enhanced \"exchange and correlation effects\" (the quantum mechanical nature of electron-electron repulsion) in the compact $2p$ shell as the reason for the reduced $EA$ of fluorine. It combines this accurate physical picture with the correct contextual distinction between $EA$ and $\\chi$ (as in statement A), providing a comprehensive and accurate explanation.\n**Verdict: Correct.**", "answer": "$$\\boxed{ABEG}$$", "id": "2950268"}]}